ITEM: TIMESTEP
0
ITEM: NUMBER OF ATOMS
1294
ITEM: BOX BOUNDS pp pp pp
-1 1
-1 1
-1 1
ITEM: ATOMS id type xu yu zu age gender live rel
0 0 -1.000000 0.000000 -0.600000 2 0 0 1 
1 0 -1.000000 0.000000 0.000000 1 1 1 3 
2 0 0.000000 0.000000 0.900000 1 1 1 2 
3 0 0.000000 0.000000 0.000000 1 1 1 2 
4 0 0.000000 0.000000 0.300000 2 1 1 6 
5 0 0.000000 0.166667 0.300000 1 0 1 2 
6 0 0.000000 0.000000 0.900000 2 0 1 1 
7 0 0.000000 -0.008333 -0.010000 2 0 1 1 
8 0 0.000000 -0.666667 0.300000 2 1 1 1 
9 0 0.000000 1.000000 0.000000 2 1 1 1 
10 0 -1.000000 0.000000 0.400000 1 0 0 1 
11 0 -1.000000 0.000000 0.300000 3 0 1 3 
12 0 -1.000000 0.000000 0.400000 2 1 2 1 
13 0 0.000000 0.000000 1.000000 1 1 2 1 
14 0 0.000000 -0.833333 0.300000 1 0 2 1 
15 0 0.000000 0.000000 -0.500000 1 0 1 1 
16 0 0.000000 0.000000 0.000000 2 0 1 1 
17 0 -1.000000 -0.833333 0.000000 2 1 1 1 
18 0 0.000000 0.166667 0.300000 1 1 1 6 
19 0 0.000000 -0.833333 0.300000 2 0 1 2 
20 0 0.000000 0.000000 -0.600000 1 1 0 6 
21 0 0.000000 0.000000 -0.200000 3 1 1 6 
22 0 -1.000000 -0.833333 -0.300000 2 1 1 6 
23 0 1.000000 0.000000 0.000000 3 0 1 6 
24 0 0.000000 -0.833333 0.600000 3 0 0 1 
25 0 0.000000 0.000000 0.000000 3 1 1 1 
26 0 -1.000000 0.000000 0.000000 2 0 1 1 
27 0 -0.010000 -0.010000 -0.010000 2 0 1 4 
28 0 0.000000 0.166667 -0.300000 2 0 0 1 
29 0 0.000000 0.833333 -0.900000 2 0 1 6 
30 0 0.000000 0.833333 0.300000 1 1 1 3 
31 0 1.000000 0.000000 0.300000 5 0 1 1 
32 0 0.000000 0.166667 -0.600000 1 1 1 2 
33 0 0.000000 0.000000 -0.200000 2 1 1 1 
34 0 0.000000 0.000000 0.100000 1 1 1 6 
35 0 -0.010000 -0.010000 -0.010000 4 1 1 6 
36 0 0.000000 0.166667 -0.600000 4 1 1 1 
37 0 -1.000000 -0.833333 0.100000 1 0 0 1 
38 0 0.000000 0.000000 0.600000 3 0 1 1 
39 0 0.000000 0.000000 0.000000 1 1 1 6 
40 0 0.000000 0.000000 0.000000 2 1 1 6 
41 0 0.000000 0.833333 0.300000 2 0 1 1 
42 0 0.000000 -0.833333 -0.300000 2 0 0 6 
43 0 1.000000 -0.833333 -0.200000 1 0 1 1 
44 0 0.000000 0.000000 -0.600000 2 1 1 6 
45 0 0.000000 0.000000 0.000000 1 1 1 1 
46 0 -1.000000 0.166667 0.100000 2 1 0 3 
47 0 0.000000 0.000000 0.000000 2 0 1 7 
48 0 0.000000 0.000000 0.300000 2 1 1 3 
49 0 -1.000000 0.166667 0.100000 2 1 1 3 
50 0 -1.000000 0.000000 0.700000 2 0 1 7 
51 0 0.000000 0.000000 0.300000 2 0 1 1 
52 0 0.000000 -0.833333 -0.200000 2 1 1 2 
53 0 -1.000000 0.000000 0.300000 2 1 1 6 
54 0 0.000000 0.000000 0.300000 2 0 1 6 
55 0 -0.010000 -0.010000 -0.010000 2 1 1 1 
56 0 -1.000000 0.000000 -0.600000 1 0 1 6 
57 0 0.000000 0.166667 0.000000 2 1 1 1 
58 0 0.000000 0.000000 0.100000 2 1 1 6 
59 0 0.000000 0.000000 0.000000 2 0 1 6 
60 0 0.000000 0.000000 0.100000 1 1 1 1 
61 0 0.000000 0.000000 0.300000 1 0 1 2 
62 0 0.000000 0.166667 0.000000 2 1 0 6 
63 0 0.000000 0.166667 1.000000 1 1 1 2 
64 0 0.000000 -0.833333 0.600000 2 0 1 6 
65 0 0.000000 -0.833333 0.300000 3 1 1 6 
66 0 0.000000 0.158333 -0.009000 2 1 1 6 
67 0 0.000000 0.166667 0.000000 1 0 1 1 
68 0 0.000000 -0.008333 -0.010000 4 1 1 6 
69 0 0.000000 0.000000 -0.300000 2 1 2 6 
70 0 0.000000 0.833333 0.900000 1 1 1 3 
71 0 0.000000 -0.833333 -0.300000 3 1 1 6 
72 0 -0.010000 -0.010000 -0.010000 2 1 0 3 
73 0 0.000000 0.000000 0.900000 3 0 1 1 
74 0 0.000000 0.000000 -0.800000 1 1 0 6 
75 0 1.000000 0.000000 0.600000 2 1 1 1 
76 0 1.000000 0.000000 -0.600000 1 0 1 6 
77 0 0.000000 -0.666667 0.100000 2 1 1 1 
78 0 0.000000 0.000000 -0.500000 2 1 0 6 
79 0 1.000000 -0.008333 -0.010000 2 0 1 6 
80 0 0.000000 0.166667 -0.500000 2 1 1 6 
81 0 1.000000 0.158333 -0.010000 3 1 0 1 
82 0 0.000000 0.166667 0.900000 2 1 1 3 
83 0 0.000000 0.000000 0.300000 4 0 1 0 
84 0 0.000000 0.000000 0.000000 2 0 1 1 
85 0 0.000000 0.000000 -0.600000 2 0 2 6 
86 0 -1.000000 0.000000 0.100000 2 0 1 2 
87 0 -0.010000 -0.010000 -0.010000 1 0 0 6 
88 0 -1.000000 0.000000 0.900000 1 0 1 1 
89 0 -1.000000 0.158333 -0.009000 2 0 1 6 
90 0 0.000000 0.158333 0.294000 1 0 1 2 
91 0 0.000000 0.000000 -0.900000 3 1 2 6 
92 0 0.000000 0.000000 -0.900000 4 0 0 6 
93 0 -0.010000 -0.008333 -0.010000 2 1 1 1 
94 0 0.000000 0.166667 0.000000 2 0 2 1 
95 0 -1.000000 0.166667 0.900000 1 1 1 6 
96 0 -0.010000 -0.010000 -0.010000 5 0 0 1 
97 0 0.000000 0.833333 -0.700000 2 1 1 6 
98 0 0.000000 0.000000 0.300000 2 0 1 6 
99 0 0.000000 0.000000 0.300000 2 0 1 1 
100 0 0.000000 0.666667 0.300000 4 0 0 1 
101 0 0.000000 0.000000 -0.300000 4 0 0 1 
102 0 0.000000 0.166667 -0.300000 6 0 0 1 
103 0 0.000000 0.000000 0.300000 1 1 1 6 
104 0 0.000000 0.000000 0.000000 6 1 0 1 
105 0 0.000000 -0.008333 -0.010000 1 0 1 2 
106 0 -1.000000 -0.008333 -0.010000 3 0 0 1 
107 0 -1.000000 -0.666667 0.300000 1 0 1 1 
108 0 -1.000000 0.000000 -0.600000 2 1 1 6 
109 0 -1.000000 1.000000 0.600000 1 1 2 6 
110 0 0.000000 0.000000 -0.010000 1 0 0 1 
111 0 0.000000 0.000000 0.100000 3 1 0 6 
112 0 0.000000 0.000000 -0.600000 1 1 1 6 
113 0 1.000000 0.000000 0.300000 1 1 1 1 
114 0 0.000000 -0.166667 -0.600000 2 0 0 6 
115 0 0.000000 0.000000 -0.300000 4 0 2 1 
116 0 0.000000 0.000000 -0.600000 2 0 0 1 
117 0 0.000000 -0.833333 0.300000 1 1 0 6 
118 0 0.000000 -0.833333 -0.600000 2 2 1 6 
119 0 -1.000000 0.166667 -0.600000 2 1 1 1 
120 0 -1.000000 -0.166667 0.300000 1 0 1 3 
121 0 0.000000 -1.000000 -0.500000 2 0 0 6 
122 0 -1.000000 0.833333 -0.600000 1 1 0 1 
123 0 0.000000 0.000000 1.000000 2 1 1 6 
124 0 0.000000 0.000000 0.000000 1 1 2 6 
125 0 0.000000 -0.833333 -0.200000 4 1 1 6 
126 0 0.000000 0.833333 -0.600000 2 0 1 1 
127 0 0.000000 0.000000 -0.600000 5 1 1 6 
128 0 0.000000 0.000000 -0.200000 1 1 1 1 
129 0 1.000000 0.000000 0.100000 2 1 0 1 
130 0 -0.010000 -0.010000 -0.010000 2 0 1 6 
131 0 0.000000 1.000000 0.300000 2 1 2 7 
132 0 0.000000 0.000000 0.100000 1 0 1 1 
133 0 0.000000 0.000000 0.000000 2 0 0 1 
134 0 0.000000 -0.666667 -0.300000 2 1 1 6 
135 0 0.000000 -0.833333 0.100000 1 1 0 0 
136 0 0.000000 0.000000 -0.200000 1 1 1 1 
137 0 -1.000000 0.000000 -0.300000 5 1 1 6 
138 0 -1.000000 0.000000 0.300000 3 1 1 1 
139 0 0.000000 -0.008333 -0.009000 5 1 2 6 
140 0 0.000000 0.166667 0.000000 1 0 2 2 
141 0 0.000000 0.000000 -0.600000 2 1 1 6 
142 0 0.000000 0.000000 -0.300000 2 0 2 1 
143 0 -1.000000 0.000000 0.200000 2 2 1 6 
144 0 0.000000 0.000000 0.000000 2 1 1 6 
145 0 0.000000 0.000000 -0.006000 1 0 0 1 
146 0 -1.000000 0.000000 0.400000 1 1 1 2 
147 0 0.000000 -0.833333 0.100000 4 0 1 3 
148 0 0.000000 0.000000 1.000000 1 1 0 6 
149 0 0.000000 -0.008333 -0.009000 1 1 1 1 
150 0 -1.000000 0.000000 0.000000 4 1 1 1 
151 0 0.000000 0.000000 0.000000 1 0 1 6 
152 0 0.000000 0.000000 0.000000 1 1 2 1 
153 0 0.000000 0.000000 0.000000 2 0 1 1 
154 0 0.000000 0.000000 0.000000 1 1 1 1 
155 0 -1.000000 0.000000 -0.300000 1 0 0 6 
156 0 0.000000 0.000000 -0.010000 1 1 0 1 
157 0 0.000000 0.166667 0.000000 1 1 1 1 
158 0 0.000000 0.166667 -0.200000 2 1 1 1 
159 0 0.000000 0.000000 -0.100000 2 1 0 6 
160 0 0.000000 -0.008333 -0.010000 5 0 1 1 
161 0 0.000000 0.000000 -0.600000 2 1 1 1 
162 0 0.000000 0.166667 0.300000 2 1 0 6 
163 0 0.000000 0.000000 -0.600000 2 0 1 1 
164 0 0.000000 0.000000 0.600000 2 1 1 1 
165 0 -1.000000 0.000000 -0.009000 2 0 2 1 
166 0 -1.000000 0.000000 -0.200000 1 1 1 1 
167 0 0.000000 0.000000 -0.300000 1 1 1 3 
168 0 -1.000000 0.000000 -0.600000 2 1 0 6 
169 0 0.000000 -0.833333 -0.600000 4 1 1 6 
170 0 0.000000 0.166667 0.900000 1 0 1 3 
171 0 -1.000000 0.000000 0.200000 2 3 0 6 
172 0 -1.000000 -0.833333 -0.600000 1 2 0 6 
173 0 1.000000 0.000000 -0.300000 2 1 1 0 
174 0 0.000000 -0.008333 0.394000 2 0 1 6 
175 0 0.000000 0.000000 0.300000 2 0 2 1 
176 0 0.000000 0.000000 0.000000 1 0 0 3 
177 0 -1.000000 -0.833333 0.300000 2 0 1 1 
178 0 -1.000000 -0.008333 -0.010000 1 1 0 6 
179 0 0.000000 -0.833333 0.400000 1 1 0 2 
180 0 -1.000000 0.166667 -0.007000 1 1 0 6 
181 0 0.000000 0.000000 0.300000 4 0 0 1 
182 0 0.000000 0.000000 -0.700000 2 0 0 3 
183 0 0.000000 0.000000 0.000000 2 1 2 6 
184 0 0.000000 0.166667 -0.300000 3 0 1 6 
185 0 -1.000000 0.166667 1.000000 3 0 1 1 
186 0 0.000000 0.000000 0.300000 4 1 1 6 
187 0 -0.010000 -0.008333 -0.010000 2 0 1 6 
188 0 -1.000000 0.000000 0.300000 2 1 1 6 
189 0 0.000000 0.000000 0.400000 1 0 0 1 
190 0 -0.010000 -0.008333 -0.010000 2 1 0 3 
191 0 0.000000 0.000000 0.600000 2 1 1 1 
192 0 0.000000 -0.166667 -0.900000 3 0 2 1 
193 0 0.000000 0.000000 0.300000 2 1 1 6 
194 0 -1.000000 0.000000 -0.500000 2 1 1 3 
195 0 0.000000 0.000000 0.000000 4 0 1 0 
196 0 -1.000000 -0.166667 0.900000 6 0 0 1 
197 0 0.000000 0.000000 0.300000 2 1 1 1 
198 0 0.000000 1.000000 0.094000 2 0 1 6 
199 0 -1.000000 0.000000 -0.300000 2 1 2 1 
200 0 0.000000 0.166667 -0.600000 2 1 1 1 
201 0 1.000000 0.833333 -0.200000 5 0 0 1 
202 0 0.000000 0.000000 0.091000 3 1 0 6 
203 0 0.000000 0.000000 0.300000 2 1 1 6 
204 0 0.000000 0.000000 1.000000 1 1 0 3 
205 0 0.000000 0.166667 -0.200000 2 1 2 1 
206 0 0.000000 -0.833333 -0.600000 2 1 1 6 
207 0 0.000000 0.000000 0.000000 1 1 1 6 
208 0 1.000000 0.000000 -0.200000 3 1 1 6 
209 0 0.000000 0.000000 -0.300000 4 0 1 1 
210 0 0.000000 0.833333 -0.200000 2 0 0 1 
211 0 -1.000000 -0.833333 0.000000 4 0 2 1 
212 0 -1.000000 0.833333 -0.600000 2 1 1 6 
213 0 0.000000 0.000000 -0.500000 2 0 1 1 
214 0 -1.000000 0.000000 0.300000 1 0 2 1 
215 0 0.000000 0.000000 -0.600000 3 1 2 1 
216 0 0.000000 0.833333 -0.300000 1 1 1 6 
217 0 0.000000 -0.833333 0.100000 2 1 1 1 
218 0 0.000000 0.000000 0.000000 1 1 1 6 
219 0 -1.000000 0.000000 -0.600000 1 1 1 6 
220 0 0.000000 0.000000 -0.300000 1 0 1 3 
221 0 0.000000 0.166667 0.000000 1 1 1 1 
222 0 0.000000 -0.008333 -0.010000 3 1 2 6 
223 0 0.000000 0.166667 0.400000 1 1 2 6 
224 0 0.000000 0.000000 -0.600000 2 1 0 3 
225 0 0.000000 0.000000 -0.100000 2 0 2 6 
226 0 0.000000 -0.833333 -0.600000 1 1 2 4 
227 0 0.000000 0.000000 0.000000 2 1 0 6 
228 0 -1.000000 0.833333 0.000000 2 1 0 6 
229 0 0.000000 0.833333 -0.500000 2 1 1 1 
230 0 -1.000000 0.000000 0.000000 3 1 1 6 
231 0 0.000000 -0.833333 -0.600000 2 0 0 6 
232 0 -1.000000 -0.833333 -0.100000 2 1 0 6 
233 0 -1.000000 0.000000 1.000000 1 0 1 4 
234 0 0.000000 0.000000 -0.200000 3 1 1 6 
235 0 -1.000000 0.166667 0.100000 2 1 0 3 
236 0 0.000000 0.833333 0.300000 2 1 1 3 
237 0 0.000000 0.000000 -0.200000 1 1 1 3 
238 0 0.000000 0.000000 1.000000 2 1 1 2 
239 0 0.000000 0.166667 0.300000 1 0 1 6 
240 0 -1.000000 -0.008333 -0.010000 2 1 0 3 
241 0 0.000000 0.833333 0.300000 5 1 1 1 
242 0 0.000000 0.000000 -0.600000 2 1 1 1 
243 0 -1.000000 -0.666667 0.100000 3 0 1 1 
244 0 -1.000000 0.000000 -0.600000 2 1 0 6 
245 0 1.000000 -0.833333 0.300000 1 1 1 1 
246 0 0.000000 0.000000 0.400000 1 1 1 4 
247 0 0.000000 0.000000 -0.300000 2 1 0 1 
248 0 0.000000 0.000000 -0.600000 2 0 0 6 
249 0 0.000000 -0.833333 -0.300000 2 1 1 1 
250 0 0.000000 -0.833333 0.400000 2 1 1 3 
251 0 0.000000 0.166667 1.000000 4 0 1 1 
252 0 0.000000 -0.833333 0.300000 2 2 1 6 
253 0 -0.010000 -0.010000 -0.010000 3 0 1 1 
254 0 0.000000 1.000000 0.100000 4 1 0 1 
255 0 -1.000000 0.000000 -0.200000 1 1 1 4 
256 0 -1.000000 0.166667 -0.006000 2 0 1 2 
257 0 -1.000000 0.000000 0.300000 2 1 1 1 
258 0 0.000000 0.000000 -0.300000 2 0 0 3 
259 0 -1.000000 -0.008333 0.294000 2 1 2 6 
260 0 -1.000000 0.833333 0.100000 2 1 1 1 
261 0 -1.000000 0.000000 0.300000 3 0 1 3 
262 0 0.000000 0.000000 0.000000 6 1 0 1 
263 0 0.000000 0.000000 0.900000 2 0 1 1 
264 0 0.000000 0.000000 -0.500000 1 1 2 1 
265 0 -1.000000 0.000000 0.400000 1 1 1 1 
266 0 -1.000000 0.000000 0.300000 2 1 0 1 
267 0 0.000000 -0.833333 -0.300000 4 1 0 0 
268 0 -1.000000 0.166667 -0.300000 1 1 0 1 
269 0 0.000000 0.166667 -0.500000 2 1 1 1 
270 0 -1.000000 0.166667 0.000000 2 1 1 2 
271 0 0.000000 -0.833333 -0.600000 2 1 1 1 
272 0 -1.000000 0.833333 -0.300000 1 0 0 2 
273 0 -1.000000 0.000000 0.300000 2 1 1 6 
274 0 0.000000 0.000000 0.000000 1 1 1 2 
275 0 0.000000 -0.833333 -0.100000 4 0 1 1 
276 0 0.000000 0.000000 -0.300000 3 1 2 1 
277 0 0.000000 0.000000 0.300000 2 1 1 6 
278 0 0.000000 0.833333 -0.300000 1 1 1 6 
279 0 0.000000 0.000000 0.394000 1 1 1 1 
280 0 -0.010000 -0.010000 -0.010000 1 0 1 6 
281 0 0.000000 -0.666667 0.000000 1 0 1 6 
282 0 -1.000000 0.000000 0.100000 2 0 1 6 
283 0 1.000000 0.833333 0.400000 2 1 1 6 
284 0 0.000000 0.000000 0.000000 4 1 0 1 
285 0 0.000000 0.000000 -0.300000 1 1 1 1 
286 0 0.000000 0.166667 0.400000 3 1 0 6 
287 0 0.000000 0.000000 0.000000 2 1 0 0 
288 0 0.000000 0.000000 -0.400000 6 1 2 6 
289 0 0.000000 -0.833333 0.300000 2 1 1 3 
290 0 -1.000000 0.000000 0.100000 4 1 0 3 
291 0 0.000000 0.000000 -0.200000 2 0 1 6 
292 0 -1.000000 0.000000 0.100000 3 1 1 1 
293 0 0.000000 -0.008333 -0.010000 3 1 0 1 
294 0 0.000000 0.000000 -0.600000 4 0 0 1 
295 0 0.000000 0.000000 0.600000 3 1 0 6 
296 0 0.000000 0.000000 -0.400000 2 1 1 3 
297 0 1.000000 0.000000 -0.300000 2 1 0 6 
298 0 0.000000 0.000000 0.000000 4 1 1 6 
299 0 0.000000 0.000000 0.400000 1 0 0 1 
300 0 0.000000 0.000000 -0.800000 1 1 1 1 
301 0 0.000000 0.000000 -0.600000 3 0 0 0 
302 0 0.000000 -0.833333 -0.500000 2 1 1 1 
303 0 -1.000000 0.166667 -0.600000 2 0 1 6 
304 0 -1.000000 0.000000 0.400000 1 0 1 0 
305 0 0.000000 -0.833333 0.300000 1 1 0 3 
306 0 -0.010000 -0.010000 -0.010000 4 1 1 1 
307 0 0.000000 1.000000 -0.200000 3 1 1 4 
308 0 0.000000 -0.833333 0.900000 2 0 0 1 
309 0 0.000000 0.166667 0.300000 2 0 0 3 
310 0 -1.000000 0.166667 0.000000 3 0 0 6 
311 0 -0.010000 -0.010000 -0.010000 4 1 0 1 
312 0 0.000000 -0.833333 -0.400000 1 0 1 6 
313 0 0.000000 0.000000 -0.600000 2 0 1 3 
314 0 -1.000000 0.000000 0.300000 2 1 1 3 
315 0 -0.010000 0.158333 -0.010000 4 0 0 1 
316 0 -1.000000 -0.833333 0.100000 3 1 1 6 
317 0 0.000000 0.000000 0.000000 2 0 2 3 
318 0 0.000000 0.166667 0.000000 2 0 1 6 
319 0 0.000000 -0.833333 0.000000 1 0 1 3 
320 0 0.000000 0.000000 0.000000 4 1 0 1 
321 0 0.000000 0.000000 -0.200000 2 0 0 3 
322 0 -0.010000 -0.008333 -0.010000 1 0 1 4 
323 0 0.000000 0.000000 0.300000 4 1 0 6 
324 0 -1.000000 0.000000 -0.600000 1 1 1 1 
325 0 0.000000 0.000000 0.000000 2 0 1 6 
326 0 -1.000000 0.000000 -0.500000 1 1 0 1 
327 0 0.000000 0.000000 0.000000 2 0 2 3 
328 0 0.000000 0.000000 0.000000 1 0 0 6 
329 0 0.000000 -0.833333 -0.300000 2 1 1 1 
330 0 -1.000000 0.000000 -0.300000 3 0 2 7 
331 0 -1.000000 0.166667 0.400000 1 0 1 1 
332 0 0.000000 0.000000 0.100000 1 1 0 6 
333 0 0.000000 -0.008333 -0.010000 2 1 1 1 
334 0 0.000000 0.000000 -0.200000 1 0 1 1 
335 0 -1.000000 -0.833333 -0.600000 1 0 1 6 
336 0 0.000000 -0.833333 0.000000 3 1 1 2 
337 0 0.000000 0.000000 -0.006000 2 0 1 1 
338 0 0.000000 1.000000 -0.600000 2 1 2 3 
339 0 0.000000 -0.833333 0.300000 3 1 1 3 
340 0 -1.000000 -0.833333 0.100000 3 1 1 1 
341 0 -1.000000 0.000000 0.000000 1 1 1 1 
342 0 0.000000 0.000000 0.000000 3 0 1 2 
343 0 -1.000000 -0.008333 -0.010000 2 0 1 6 
344 0 0.000000 0.166667 0.300000 2 1 1 0 
345 0 -1.000000 -0.833333 0.300000 1 0 0 4 
346 0 0.000000 0.166667 0.394000 2 0 1 1 
347 0 0.000000 0.000000 0.091000 2 1 1 7 
348 0 0.000000 0.000000 -0.600000 2 0 1 1 
349 0 -1.000000 0.000000 1.000000 4 1 0 6 
350 0 -1.000000 0.166667 0.300000 2 0 1 3 
351 0 -1.000000 0.000000 0.300000 2 1 1 3 
352 0 0.000000 0.000000 0.000000 2 1 0 6 
353 0 0.000000 -0.833333 -0.600000 1 1 0 1 
354 0 -1.000000 0.000000 0.100000 2 0 1 1 
355 0 -1.000000 0.000000 0.100000 1 1 1 1 
356 0 -1.000000 -0.833333 -0.700000 1 1 1 6 
357 0 0.000000 0.000000 0.700000 2 0 2 3 
358 0 -1.000000 0.000000 -0.600000 2 0 1 1 
359 0 0.000000 0.000000 0.000000 2 0 1 6 
360 0 -1.000000 0.166667 0.100000 3 1 1 1 
361 0 -0.010000 -0.010000 -0.010000 1 1 1 4 
362 0 0.000000 -0.666667 -0.500000 1 0 1 3 
363 0 0.000000 0.000000 0.100000 2 0 1 1 
364 0 0.000000 1.000000 -0.700000 1 0 1 4 
365 0 -1.000000 0.000000 0.000000 3 0 1 6 
366 0 -1.000000 -0.833333 -0.007000 1 0 0 1 
367 0 -1.000000 0.000000 0.000000 2 0 1 6 
368 0 0.000000 -0.833333 -0.700000 2 1 2 3 
369 0 0.000000 0.000000 0.000000 4 0 0 1 
370 0 0.000000 0.000000 0.300000 1 0 1 3 
371 0 0.000000 0.000000 0.300000 2 0 0 3 
372 0 0.000000 0.000000 -0.300000 2 0 1 6 
373 0 0.000000 -0.833333 -0.500000 1 1 1 3 
374 0 0.000000 -0.833333 0.000000 2 1 1 1 
375 0 0.000000 0.000000 -0.600000 2 1 0 2 
376 0 0.000000 -0.666667 0.400000 1 0 1 1 
377 0 0.000000 0.166667 0.400000 2 1 1 6 
378 0 0.000000 0.000000 0.300000 2 0 1 3 
379 0 0.000000 0.166667 -0.300000 2 1 1 3 
380 0 -1.000000 0.000000 0.300000 2 1 1 7 
381 0 -0.010000 -0.010000 -0.010000 1 0 1 6 
382 0 0.000000 0.000000 -0.400000 3 1 1 1 
383 0 0.000000 -0.833333 -0.300000 2 1 1 6 
384 0 -1.000000 0.166667 -0.400000 1 1 1 3 
385 0 -1.000000 0.000000 0.300000 1 0 1 4 
386 0 0.000000 -0.833333 0.600000 4 1 1 6 
387 0 -0.010000 -0.008333 -0.010000 4 0 0 1 
388 0 0.000000 0.833333 -0.600000 2 2 1 6 
389 0 -1.000000 -0.008333 -0.306000 2 1 1 6 
390 0 0.000000 -0.833333 0.000000 2 0 1 7 
391 0 0.000000 0.000000 -0.010000 1 0 1 1 
392 0 0.000000 0.833333 -0.500000 2 1 1 6 
393 0 0.000000 0.000000 0.100000 4 0 1 1 
394 0 -1.000000 0.000000 0.094000 2 1 1 1 
395 0 -1.000000 0.666667 0.000000 2 1 0 1 
396 0 0.000000 0.000000 -0.010000 3 1 1 3 
397 0 -1.000000 -0.008333 -0.010000 1 1 1 3 
398 0 -1.000000 0.000000 -0.500000 1 0 1 4 
399 0 0.000000 0.000000 -0.100000 2 1 1 6 
400 0 0.000000 0.000000 0.000000 3 1 1 1 
401 0 0.000000 0.000000 0.400000 1 1 1 2 
402 0 -1.000000 0.000000 0.100000 3 1 1 1 
403 0 0.000000 0.000000 0.400000 1 0 1 1 
404 0 0.000000 -0.833333 0.600000 1 1 1 6 
405 0 -1.000000 0.166667 -0.300000 2 0 0 1 
406 0 0.000000 0.000000 -0.600000 2 0 0 3 
407 0 -1.000000 0.000000 0.300000 2 0 0 1 
408 0 -1.000000 0.000000 0.500000 1 1 1 6 
409 0 0.000000 0.000000 -0.300000 5 1 2 6 
410 0 0.000000 -0.833333 -0.007000 2 0 1 1 
411 0 0.000000 -0.833333 0.300000 2 1 1 1 
412 0 0.000000 1.000000 0.700000 3 1 1 1 
413 0 0.000000 0.000000 0.000000 4 0 2 1 
414 0 0.000000 0.000000 0.400000 3 1 1 6 
415 0 -1.000000 0.000000 0.000000 2 1 1 6 
416 0 0.000000 0.000000 0.300000 2 1 1 3 
417 0 0.000000 -0.666667 -0.300000 2 0 1 3 
418 0 0.000000 0.000000 -0.200000 2 0 0 6 
419 0 0.000000 -0.833333 0.300000 1 0 1 1 
420 0 0.000000 0.166667 -0.300000 1 0 1 6 
421 0 0.000000 0.000000 0.600000 1 1 1 6 
422 0 -1.000000 0.000000 -0.600000 1 0 1 1 
423 0 0.000000 0.158333 -0.010000 1 0 1 3 
424 0 -1.000000 0.000000 0.700000 2 1 1 1 
425 0 0.000000 0.000000 0.100000 2 1 1 6 
426 0 -1.000000 0.000000 0.100000 3 0 0 1 
427 0 -0.010000 -0.010000 -0.010000 1 1 0 1 
428 0 0.000000 0.000000 -0.600000 3 0 1 1 
429 0 0.000000 -0.833333 0.000000 2 0 1 3 
430 0 0.000000 0.000000 0.300000 2 1 1 1 
431 0 0.000000 0.000000 -0.600000 2 1 0 1 
432 0 0.000000 0.000000 0.000000 2 0 1 3 
433 0 0.000000 -0.008333 -0.010000 2 0 1 6 
434 0 0.000000 0.000000 0.300000 1 0 1 6 
435 0 -1.000000 0.166667 0.300000 2 0 0 6 
436 0 0.000000 0.000000 -0.600000 5 0 0 6 
437 0 0.000000 0.000000 -0.300000 3 0 0 6 
438 0 0.000000 0.000000 0.000000 1 1 1 1 
439 0 0.000000 0.166667 0.100000 1 1 1 1 
440 0 0.000000 0.000000 0.300000 3 1 1 6 
441 0 0.000000 0.000000 0.100000 3 0 0 1 
442 0 0.000000 0.000000 0.400000 2 1 0 6 
443 0 0.000000 0.000000 -0.600000 2 0 2 6 
444 0 0.000000 0.833333 0.000000 3 1 0 6 
445 0 0.000000 1.000000 -0.200000 2 0 0 3 
446 0 -1.000000 0.000000 -0.200000 4 0 0 6 
447 0 0.000000 0.000000 -0.300000 2 1 1 6 
448 0 0.000000 0.166667 -0.600000 2 0 0 6 
449 0 0.000000 0.000000 0.300000 1 0 1 1 
450 0 -1.000000 0.000000 0.600000 2 0 1 6 
451 0 0.000000 -0.833333 0.100000 1 0 1 2 
452 0 0.000000 0.000000 0.000000 3 1 0 1 
453 0 -1.000000 0.000000 -0.500000 1 1 2 1 
454 0 0.000000 0.000000 0.300000 1 1 0 2 
455 0 0.000000 0.166667 0.200000 2 0 1 0 
456 0 0.000000 0.166667 0.000000 1 1 1 6 
457 0 0.000000 -0.833333 -0.600000 2 1 1 1 
458 0 -1.000000 0.000000 0.300000 1 1 1 6 
459 0 -1.000000 0.000000 0.400000 4 1 0 6 
460 0 0.000000 0.000000 0.000000 1 1 1 6 
461 0 -0.010000 -0.010000 -0.010000 2 0 1 1 
462 0 -1.000000 -0.833333 0.200000 3 1 1 6 
463 0 0.000000 0.000000 1.000000 2 1 1 6 
464 0 0.000000 -0.666667 0.400000 3 1 0 1 
465 0 0.000000 0.000000 0.100000 2 1 1 1 
466 0 0.000000 0.000000 -0.300000 1 0 1 1 
467 0 -1.000000 0.166667 0.000000 2 0 0 6 
468 0 0.000000 0.000000 -0.200000 1 1 0 1 
469 0 0.000000 0.166667 -0.300000 2 0 1 3 
470 0 0.000000 0.000000 0.400000 2 0 1 2 
471 0 -1.000000 -0.833333 0.600000 3 0 1 3 
472 0 -1.000000 0.166667 -0.300000 2 1 0 7 
473 0 -1.000000 0.000000 0.300000 5 0 2 1 
474 0 0.000000 -0.833333 -0.600000 2 1 1 4 
475 0 -0.010000 -0.010000 -0.010000 3 0 1 1 
476 0 -1.000000 0.000000 0.000000 2 1 0 1 
477 0 -1.000000 -0.833333 0.000000 2 0 1 6 
478 0 0.000000 -0.666667 0.000000 2 1 1 6 
479 0 0.000000 0.000000 -0.600000 4 1 1 1 
480 0 0.000000 0.166667 0.300000 2 1 1 3 
481 0 0.000000 0.000000 -0.600000 1 1 1 6 
482 0 -1.000000 0.000000 0.100000 1 0 1 3 
483 0 0.000000 0.000000 -0.600000 1 1 0 0 
484 0 -1.000000 0.000000 0.400000 1 1 1 1 
485 0 0.000000 0.000000 0.400000 1 1 1 6 
486 0 0.000000 0.000000 -0.100000 1 0 1 6 
487 0 0.000000 0.000000 0.000000 1 3 1 3 
488 0 0.000000 0.000000 0.000000 3 1 1 3 
489 0 0.000000 0.000000 0.000000 3 0 2 2 
490 0 0.000000 0.000000 0.400000 3 1 1 1 
491 0 0.000000 0.833333 0.900000 2 1 1 3 
492 0 -1.000000 -0.833333 0.000000 2 1 1 3 
493 0 0.000000 -0.833333 0.000000 1 1 1 6 
494 0 0.000000 0.000000 0.300000 3 0 0 1 
495 0 0.000000 1.000000 1.000000 1 1 1 1 
496 0 0.000000 0.000000 0.000000 4 1 0 1 
497 0 0.000000 -0.833333 0.600000 5 0 0 1 
498 0 0.000000 0.000000 -0.500000 2 0 0 1 
499 0 -1.000000 -0.833333 0.000000 2 1 1 1 
500 0 0.000000 -0.833333 -0.400000 2 1 1 6 
501 0 0.000000 -0.666667 0.000000 1 1 2 1 
502 0 -0.010000 -0.010000 -0.010000 2 1 0 4 
503 0 0.000000 0.000000 0.500000 4 0 0 6 
504 0 0.000000 0.000000 1.000000 1 0 1 3 
505 0 -1.000000 0.000000 -0.600000 2 0 1 1 
506 0 1.000000 -0.166667 -0.500000 3 1 1 4 
507 0 0.000000 0.000000 0.000000 2 0 1 3 
508 0 -1.000000 0.166667 0.900000 1 1 1 2 
509 0 0.000000 0.000000 0.900000 4 0 0 6 
510 0 0.000000 0.000000 0.000000 2 1 1 6 
511 0 0.000000 0.000000 0.000000 2 1 1 7 
512 0 -1.000000 0.000000 0.400000 4 0 0 1 
513 0 -1.000000 0.000000 0.100000 3 0 2 1 
514 0 1.000000 -0.833333 -0.600000 2 1 0 1 
515 0 -1.000000 -0.166667 -0.600000 2 0 0 6 
516 0 0.000000 -0.833333 -0.600000 3 0 2 6 
517 0 0.000000 0.166667 0.000000 2 0 1 2 
518 0 -1.000000 0.166667 0.300000 2 0 1 1 
519 0 0.000000 0.000000 -0.500000 1 0 0 6 
520 0 0.000000 0.166667 0.300000 2 1 0 6 
521 0 0.000000 0.166667 0.000000 2 0 1 3 
522 0 0.000000 0.000000 -0.600000 3 0 2 6 
523 0 -0.010000 0.158333 -0.010000 5 1 1 6 
524 0 0.000000 0.000000 -0.200000 2 1 1 3 
525 0 -1.000000 0.166667 0.300000 2 0 0 3 
526 0 0.000000 0.000000 -0.500000 1 2 1 6 
527 0 0.000000 0.000000 -0.300000 2 1 1 3 
528 0 0.000000 0.166667 0.400000 1 1 1 3 
529 0 0.000000 -0.008333 -0.010000 1 1 1 3 
530 0 0.000000 0.000000 0.300000 2 1 2 1 
531 0 0.000000 0.166667 -0.500000 2 0 1 3 
532 0 -1.000000 0.000000 0.300000 1 0 1 3 
533 0 0.000000 0.000000 0.300000 1 1 1 1 
534 0 0.000000 0.000000 0.000000 1 1 0 1 
535 0 -1.000000 0.000000 0.000000 1 0 1 1 
536 0 0.000000 0.166667 -0.200000 2 0 1 6 
537 0 0.000000 0.000000 0.300000 3 1 1 6 
538 0 -1.000000 0.000000 -0.600000 3 1 1 3 
539 0 0.000000 -0.008333 -0.010000 2 0 1 0 
540 0 -0.010000 -0.010000 -0.010000 3 1 0 0 
541 0 -1.000000 0.000000 0.100000 1 0 1 3 
542 0 -1.000000 0.000000 0.100000 2 0 1 1 
543 0 0.000000 -0.833333 0.400000 2 0 0 1 
544 0 -1.000000 0.166667 0.300000 2 0 1 3 
545 0 -1.000000 0.833333 0.100000 2 0 2 1 
546 0 -1.000000 0.000000 0.000000 2 0 2 1 
547 0 -1.000000 0.158333 -0.010000 2 1 2 3 
548 0 -1.000000 0.000000 -0.500000 1 1 1 3 
549 0 0.000000 0.000000 0.000000 3 1 1 1 
550 0 0.000000 0.000000 -0.600000 1 1 1 3 
551 0 0.000000 0.000000 0.200000 2 1 1 6 
552 0 0.000000 0.000000 -0.600000 2 0 0 1 
553 0 0.000000 0.000000 -0.600000 3 1 1 1 
554 0 0.000000 -0.666667 0.091000 0 0 1 3 
555 0 0.000000 0.000000 0.400000 1 0 1 1 
556 0 -1.000000 1.000000 -0.500000 3 0 1 1 
557 0 0.000000 0.000000 0.600000 3 1 1 1 
558 0 0.000000 0.166667 -0.600000 1 0 1 3 
559 0 -1.000000 0.000000 0.400000 3 0 1 1 
560 0 -1.000000 -0.833333 0.000000 3 0 1 1 
561 0 0.000000 0.000000 0.000000 1 1 1 3 
562 0 0.000000 0.000000 0.000000 2 1 1 1 
563 0 -1.000000 0.158333 -0.010000 3 1 1 1 
564 0 0.000000 -0.833333 0.300000 1 0 1 3 
565 0 -0.010000 -0.010000 -0.010000 1 0 2 6 
566 0 0.000000 -0.833333 0.000000 5 0 1 2 
567 0 -1.000000 0.000000 0.600000 2 1 1 3 
568 0 0.000000 0.000000 0.300000 3 0 0 6 
569 0 0.000000 0.000000 0.000000 2 0 1 6 
570 0 -0.010000 -0.010000 -0.010000 1 0 1 3 
571 0 0.000000 0.166667 -0.200000 2 0 1 3 
572 0 0.000000 0.166667 0.000000 2 0 1 3 
573 0 -1.000000 0.000000 -0.900000 1 1 0 3 
574 0 0.000000 0.000000 0.600000 2 0 0 3 
575 0 0.000000 0.000000 0.000000 2 0 1 3 
576 0 1.000000 0.166667 -0.600000 1 0 0 1 
577 0 0.000000 0.000000 0.600000 2 0 1 3 
578 0 0.000000 0.000000 0.000000 3 0 1 3 
579 0 0.000000 0.000000 -0.600000 2 1 1 3 
580 0 0.000000 0.000000 0.000000 2 1 0 3 
581 0 0.000000 0.000000 0.600000 1 0 1 7 
582 0 -1.000000 0.000000 -0.200000 2 0 1 6 
583 0 -0.010000 0.158333 -0.010000 2 0 1 3 
584 0 0.000000 0.000000 -0.500000 1 1 0 6 
585 0 0.000000 0.166667 0.300000 2 0 2 6 
586 0 0.000000 0.000000 -0.900000 2 0 1 6 
587 0 -0.010000 -0.010000 -0.010000 2 1 1 0 
588 0 0.000000 0.000000 -0.600000 2 0 1 3 
589 0 -1.000000 0.000000 0.000000 2 0 0 3 
590 0 -1.000000 0.000000 -0.500000 1 1 1 1 
591 0 0.000000 0.000000 0.300000 3 1 1 6 
592 0 0.000000 0.166667 0.000000 1 0 0 6 
593 0 -1.000000 -0.833333 0.900000 4 0 1 4 
594 0 0.000000 0.000000 -0.600000 2 0 1 1 
595 0 0.000000 -0.833333 0.000000 1 0 0 3 
596 0 0.000000 0.000000 -0.200000 1 0 1 7 
597 0 0.000000 -0.833333 0.300000 3 0 2 1 
598 0 0.000000 0.000000 0.100000 3 0 1 7 
599 0 -0.010000 -0.008333 -0.010000 2 1 1 3 
600 0 0.000000 0.000000 0.700000 2 1 1 6 
601 0 0.000000 0.000000 0.200000 2 1 1 6 
602 0 -1.000000 0.000000 0.300000 1 0 1 1 
603 0 -1.000000 -0.008333 -0.010000 2 1 0 6 
604 0 0.000000 0.000000 0.000000 4 1 1 6 
605 0 0.000000 0.000000 -0.100000 2 0 0 1 
606 0 0.000000 0.166667 0.400000 2 1 1 1 
607 0 0.000000 -0.833333 0.300000 3 1 1 1 
608 0 0.000000 0.000000 0.300000 1 0 1 1 
609 0 -1.000000 -0.833333 1.000000 2 0 0 3 
610 0 0.000000 0.000000 0.300000 1 0 0 3 
611 0 0.000000 0.000000 0.300000 2 0 0 1 
612 0 0.000000 0.000000 -0.600000 2 0 1 6 
613 0 0.000000 -0.833333 -0.300000 2 0 0 6 
614 0 1.000000 0.000000 -0.109000 1 1 1 6 
615 0 0.000000 -0.833333 0.000000 1 1 1 3 
616 0 0.000000 -0.833333 0.900000 4 1 2 3 
617 0 -1.000000 0.166667 0.000000 3 0 0 3 
618 0 0.000000 0.000000 0.600000 1 0 1 3 
619 0 0.000000 0.000000 -0.200000 1 1 1 6 
620 0 -1.000000 0.000000 1.000000 3 0 1 2 
621 0 0.000000 0.166667 1.000000 1 0 1 3 
622 0 0.000000 -0.666667 0.000000 2 1 1 1 
623 0 0.000000 0.000000 0.000000 4 1 1 2 
624 0 0.000000 0.166667 -0.009000 2 0 1 1 
625 0 -1.000000 -0.166667 0.000000 3 1 1 3 
626 0 -1.000000 0.000000 0.100000 3 0 0 3 
627 0 0.000000 0.000000 -0.100000 2 1 1 1 
628 0 -1.000000 0.000000 0.500000 1 0 1 6 
629 0 -1.000000 0.000000 0.100000 1 1 0 2 
630 0 -1.000000 -0.833333 -0.306000 1 0 1 3 
631 0 -0.010000 -0.010000 -0.010000 2 1 1 6 
632 0 0.000000 0.000000 0.000000 4 1 2 1 
633 0 0.000000 0.000000 -0.500000 1 0 0 3 
634 0 0.000000 0.166667 -0.600000 2 1 1 2 
635 0 0.000000 0.833333 0.000000 2 1 1 1 
636 0 -1.000000 -0.008333 -0.010000 1 1 0 3 
637 0 -1.000000 -0.666667 -0.600000 1 1 0 2 
638 0 0.000000 0.000000 0.400000 1 1 1 1 
639 0 -1.000000 -0.833333 -0.600000 4 0 1 1 
640 0 0.000000 0.000000 0.000000 1 0 1 1 
641 0 -0.010000 -0.010000 -0.010000 3 1 1 1 
642 0 0.000000 0.000000 -0.600000 1 2 1 6 
643 0 0.000000 0.166667 0.300000 2 0 0 3 
644 0 0.000000 0.000000 0.400000 1 1 1 3 
645 0 -1.000000 0.000000 0.100000 1 1 1 3 
646 0 1.000000 0.000000 -0.600000 1 1 2 2 
647 0 0.000000 -0.833333 0.300000 1 1 1 3 
648 0 -1.000000 0.000000 0.300000 1 1 0 3 
649 0 0.000000 0.000000 0.300000 3 1 0 6 
650 0 0.000000 0.000000 0.000000 2 0 1 3 
651 0 0.000000 0.000000 0.294000 1 1 0 1 
652 0 0.000000 0.000000 -0.300000 1 0 1 6 
653 0 0.000000 -0.666667 0.091000 2 0 1 3 
654 0 0.000000 -0.666667 0.000000 1 0 1 1 
655 0 0.000000 0.000000 0.100000 2 1 1 6 
656 0 -0.010000 -0.010000 -0.010000 2 0 0 1 
657 0 0.000000 0.000000 0.600000 1 2 1 3 
658 0 0.000000 0.000000 0.300000 2 1 1 3 
659 0 -1.000000 -0.833333 0.400000 2 0 1 2 
660 0 -1.000000 -0.666667 0.300000 1 0 1 6 
661 0 0.000000 0.833333 0.400000 2 0 1 2 
662 0 0.000000 0.000000 0.600000 1 1 1 1 
663 0 0.000000 0.000000 0.300000 1 1 0 1 
664 0 0.000000 -0.833333 0.300000 2 1 1 1 
665 0 0.000000 0.166667 0.400000 2 0 1 1 
666 0 -1.000000 -0.008333 -0.010000 2 0 1 3 
667 0 0.000000 0.000000 -0.400000 3 1 1 2 
668 0 -1.000000 0.000000 0.300000 2 1 1 3 
669 0 -1.000000 0.000000 -0.100000 2 1 1 3 
670 0 0.000000 0.000000 -0.300000 4 0 1 6 
671 0 0.000000 0.000000 0.000000 3 0 0 6 
672 0 -0.010000 -0.010000 -0.010000 1 1 1 1 
673 0 0.000000 0.000000 0.400000 1 1 1 1 
674 0 0.000000 0.000000 0.000000 2 0 1 6 
675 0 -0.010000 -0.010000 -0.010000 1 0 2 5 
676 0 0.000000 0.000000 0.300000 2 1 2 6 
677 0 0.000000 -0.833333 0.091000 1 1 0 3 
678 0 0.000000 0.000000 -0.900000 2 1 1 6 
679 0 0.000000 0.000000 0.300000 2 1 1 1 
680 0 1.000000 0.666667 0.000000 1 1 1 6 